ITEM: TIMESTEP
0
ITEM: NUMBER OF ATOMS
1000
ITEM: BOX BOUNDS pp pp pp
-1.4199999999999999e+01 1.4199999999999999e+01
-1.4199999999999999e+01 1.4199999999999999e+01
-1.4199999999999999e+01 1.4199999999999999e+01
ITEM: ATOMS id type xs ys zs
1 1 0.05 0.05 0.05
2 2 0.05 0.15 0.05
3 2 0.15 0.05 0.05
4 1 0.15 0.15 0.05
5 2 0.05 0.05 0.15
6 1 0.05 0.15 0.15
7 1 0.15 0.05 0.15
8 2 0.15 0.15 0.15
9 1 0.05 0.05 0.25
10 2 0.05 0.15 0.25
11 2 0.15 0.05 0.25
12 1 0.15 0.15 0.25
13 2 0.05 0.05 0.35
14 1 0.05 0.15 0.35
15 1 0.15 0.05 0.35
16 2 0.15 0.15 0.35
41 1 0.05 0.25 0.05
42 2 0.05 0.35 0.05
43 2 0.15 0.25 0.05
44 1 0.15 0.35 0.05
45 2 0.05 0.25 0.15
46 1 0.05 0.35 0.15
47 1 0.15 0.25 0.15
48 2 0.15 0.35 0.15
49 1 0.05 0.25 0.25
50 2 0.05 0.35 0.25
51 2 0.15 0.25 0.25
52 1 0.15 0.35 0.25
53 2 0.05 0.25 0.35
54 1 0.05 0.35 0.35
55 1 0.15 0.25 0.35
56 2 0.15 0.35 0.35
201 1 0.25 0.05 0.05
202 2 0.25 0.15 0.05
203 2 0.35 0.05 0.05
204 1 0.35 0.15 0.05
205 2 0.25 0.05 0.15
206 1 0.25 0.15 0.15
207 1 0.35 0.05 0.15
208 2 0.35 0.15 0.15
209 1 0.25 0.05 0.25
210 2 0.25 0.15 0.25
211 2 0.35 0.05 0.25
212 1 0.35 0.15 0.25
213 2 0.25 0.05 0.35
214 1 0.25 0.15 0.35
215 1 0.35 0.05 0.35
216 2 0.35 0.15 0.35
241 1 0.25 0.25 0.05
242 2 0.25 0.35 0.05
243 2 0.35 0.25 0.05
244 1 0.35 0.35 0.05
245 2 0.25 0.25 0.15
246 1 0.25 0.35 0.15
247 1 0.35 0.25 0.15
248 2 0.35 0.35 0.15
249 1 0.25 0.25 0.25
250 2 0.25 0.35 0.25
251 2 0.35 0.25 0.25
252 1 0.35 0.35 0.25
253 2 0.25 0.25 0.35
254 1 0.25 0.35 0.35
255 1 0.35 0.25 0.35
256 2 0.35 0.35 0.35
401 1 0.45 0.05 0.05
402 2 0.45 0.15 0.05
403 2 0.55 0.05 0.05
404 1 0.55 0.15 0.05
405 2 0.45 0.05 0.15
406 1 0.45 0.15 0.15
407 1 0.55 0.05 0.15
408 2 0.55 0.15 0.15
409 1 0.45 0.05 0.25
410 2 0.45 0.15 0.25
411 2 0.55 0.05 0.25
412 1 0.55 0.15 0.25
413 2 0.45 0.05 0.35
414 1 0.45 0.15 0.35
415 1 0.55 0.05 0.35
416 2 0.55 0.15 0.35
441 1 0.45 0.25 0.05
442 2 0.45 0.35 0.05
443 2 0.55 0.25 0.05
444 1 0.55 0.35 0.05
445 2 0.45 0.25 0.15
446 1 0.45 0.35 0.15
447 1 0.55 0.25 0.15
448 2 0.55 0.35 0.15
449 1 0.45 0.25 0.25
450 2 0.45 0.35 0.25
451 2 0.55 0.25 0.25
452 1 0.55 0.35 0.25
453 2 0.45 0.25 0.35
454 1 0.45 0.35 0.35
455 1 0.55 0.25 0.35
456 2 0.55 0.35 0.35
601 1 0.65 0.05 0.05
602 2 0.65 0.15 0.05
603 2 0.75 0.05 0.05
604 1 0.75 0.15 0.05
605 2 0.65 0.05 0.15
606 1 0.65 0.15 0.15
607 1 0.75 0.05 0.15
608 2 0.75 0.15 0.15
609 1 0.65 0.05 0.25
610 2 0.65 0.15 0.25
611 2 0.75 0.05 0.25
612 1 0.75 0.15 0.25
613 2 0.65 0.05 0.35
614 1 0.65 0.15 0.35
615 1 0.75 0.05 0.35
616 2 0.75 0.15 0.35
641 1 0.65 0.25 0.05
642 2 0.65 0.35 0.05
643 2 0.75 0.25 0.05
644 1 0.75 0.35 0.05
645 2 0.65 0.25 0.15
646 1 0.65 0.35 0.15
647 1 0.75 0.25 0.15
648 2 0.75 0.35 0.15
649 1 0.65 0.25 0.25
650 2 0.65 0.35 0.25
651 2 0.75 0.25 0.25
652 1 0.75 0.35 0.25
653 2 0.65 0.25 0.35
654 1 0.65 0.35 0.35
655 1 0.75 0.25 0.35
656 2 0.75 0.35 0.35
801 1 0.85 0.05 0.05
802 2 0.85 0.15 0.05
803 2 0.95 0.05 0.05
804 1 0.95 0.15 0.05
805 2 0.85 0.05 0.15
806 1 0.85 0.15 0.15
807 1 0.95 0.05 0.15
808 2 0.95 0.15 0.15
809 1 0.85 0.05 0.25
810 2 0.85 0.15 0.25
811 2 0.95 0.05 0.25
812 1 0.95 0.15 0.25
813 2 0.85 0.05 0.35
814 1 0.85 0.15 0.35
815 1 0.95 0.05 0.35
816 2 0.95 0.15 0.35
841 1 0.85 0.25 0.05
842 2 0.85 0.35 0.05
843 2 0.95 0.25 0.05
844 1 0.95 0.35 0.05
845 2 0.85 0.25 0.15
846 1 0.85 0.35 0.15
847 1 0.95 0.25 0.15
848 2 0.95 0.35 0.15
849 1 0.85 0.25 0.25
850 2 0.85 0.35 0.25
851 2 0.95 0.25 0.25
852 1 0.95 0.35 0.25
853 2 0.85 0.25 0.35
854 1 0.85 0.35 0.35
855 1 0.95 0.25 0.35
856 2 0.95 0.35 0.35
81 1 0.05 0.45 0.05
83 2 0.15 0.45 0.05
85 2 0.05 0.45 0.15
87 1 0.15 0.45 0.15
89 1 0.05 0.45 0.25
91 2 0.15 0.45 0.25
93 2 0.05 0.45 0.35
95 1 0.15 0.45 0.35
281 1 0.25 0.45 0.05
283 2 0.35 0.45 0.05
285 2 0.25 0.45 0.15
287 1 0.35 0.45 0.15
289 1 0.25 0.45 0.25
291 2 0.35 0.45 0.25
293 2 0.25 0.45 0.35
295 1 0.35 0.45 0.35
481 1 0.45 0.45 0.05
483 2 0.55 0.45 0.05
485 2 0.45 0.45 0.15
487 1 0.55 0.45 0.15
489 1 0.45 0.45 0.25
491 2 0.55 0.45 0.25
493 2 0.45 0.45 0.35
495 1 0.55 0.45 0.35
681 1 0.65 0.45 0.05
683 2 0.75 0.45 0.05
685 2 0.65 0.45 0.15
687 1 0.75 0.45 0.15
689 1 0.65 0.45 0.25
691 2 0.75 0.45 0.25
693 2 0.65 0.45 0.35
695 1 0.75 0.45 0.35
881 1 0.85 0.45 0.05
883 2 0.95 0.45 0.05
885 2 0.85 0.45 0.15
887 1 0.95 0.45 0.15
889 1 0.85 0.45 0.25
891 2 0.95 0.45 0.25
893 2 0.85 0.45 0.35
895 1 0.95 0.45 0.35
17 1 0.05 0.05 0.45
18 2 0.05 0.15 0.45
19 2 0.15 0.05 0.45
20 1 0.15 0.15 0.45
57 1 0.05 0.25 0.45
58 2 0.05 0.35 0.45
59 2 0.15 0.25 0.45
60 1 0.15 0.35 0.45
217 1 0.25 0.05 0.45
218 2 0.25 0.15 0.45
219 2 0.35 0.05 0.45
220 1 0.35 0.15 0.45
257 1 0.25 0.25 0.45
258 2 0.25 0.35 0.45
259 2 0.35 0.25 0.45
260 1 0.35 0.35 0.45
417 1 0.45 0.05 0.45
418 2 0.45 0.15 0.45
419 2 0.55 0.05 0.45
420 1 0.55 0.15 0.45
457 1 0.45 0.25 0.45
458 2 0.45 0.35 0.45
459 2 0.55 0.25 0.45
460 1 0.55 0.35 0.45
617 1 0.65 0.05 0.45
618 2 0.65 0.15 0.45
619 2 0.75 0.05 0.45
620 1 0.75 0.15 0.45
657 1 0.65 0.25 0.45
658 2 0.65 0.35 0.45
659 2 0.75 0.25 0.45
660 1 0.75 0.35 0.45
817 1 0.85 0.05 0.45
818 2 0.85 0.15 0.45
819 2 0.95 0.05 0.45
820 1 0.95 0.15 0.45
857 1 0.85 0.25 0.45
858 2 0.85 0.35 0.45
859 2 0.95 0.25 0.45
860 1 0.95 0.35 0.45
97 1 0.05 0.45 0.45
99 2 0.15 0.45 0.45
297 1 0.25 0.45 0.45
299 2 0.35 0.45 0.45
497 1 0.45 0.45 0.45
499 2 0.55 0.45 0.45
697 1 0.65 0.45 0.45
699 2 0.75 0.45 0.45
897 1 0.85 0.45 0.45
899 2 0.95 0.45 0.45
21 2 0.05 0.05 0.55
22 1 0.05 0.15 0.55
23 1 0.15 0.05 0.55
24 2 0.15 0.15 0.55
25 1 0.05 0.05 0.65
26 2 0.05 0.15 0.65
27 2 0.15 0.05 0.65
28 1 0.15 0.15 0.65
29 2 0.05 0.05 0.75
30 1 0.05 0.15 0.75
31 1 0.15 0.05 0.75
32 2 0.15 0.15 0.75
33 1 0.05 0.05 0.85
34 2 0.05 0.15 0.85
35 2 0.15 0.05 0.85
36 1 0.15 0.15 0.85
61 2 0.05 0.25 0.55
62 1 0.05 0.35 0.55
63 1 0.15 0.25 0.55
64 2 0.15 0.35 0.55
65 1 0.05 0.25 0.65
66 2 0.05 0.35 0.65
67 2 0.15 0.25 0.65
68 1 0.15 0.35 0.65
69 2 0.05 0.25 0.75
70 1 0.05 0.35 0.75
71 1 0.15 0.25 0.75
72 2 0.15 0.35 0.75
73 1 0.05 0.25 0.85
74 2 0.05 0.35 0.85
75 2 0.15 0.25 0.85
76 1 0.15 0.35 0.85
221 2 0.25 0.05 0.55
222 1 0.25 0.15 0.55
223 1 0.35 0.05 0.55
224 2 0.35 0.15 0.55
225 1 0.25 0.05 0.65
226 2 0.25 0.15 0.65
227 2 0.35 0.05 0.65
228 1 0.35 0.15 0.65
229 2 0.25 0.05 0.75
230 1 0.25 0.15 0.75
231 1 0.35 0.05 0.75
232 2 0.35 0.15 0.75
233 1 0.25 0.05 0.85
234 2 0.25 0.15 0.85
235 2 0.35 0.05 0.85
236 1 0.35 0.15 0.85
261 2 0.25 0.25 0.55
262 1 0.25 0.35 0.55
263 1 0.35 0.25 0.55
264 2 0.35 0.35 0.55
265 1 0.25 0.25 0.65
266 2 0.25 0.35 0.65
267 2 0.35 0.25 0.65
268 1 0.35 0.35 0.65
269 2 0.25 0.25 0.75
270 1 0.25 0.35 0.75
271 1 0.35 0.25 0.75
272 2 0.35 0.35 0.75
273 1 0.25 0.25 0.85
274 2 0.25 0.35 0.85
275 2 0.35 0.25 0.85
276 1 0.35 0.35 0.85
421 2 0.45 0.05 0.55
422 1 0.45 0.15 0.55
423 1 0.55 0.05 0.55
424 2 0.55 0.15 0.55
425 1 0.45 0.05 0.65
426 2 0.45 0.15 0.65
427 2 0.55 0.05 0.65
428 1 0.55 0.15 0.65
429 2 0.45 0.05 0.75
430 1 0.45 0.15 0.75
431 1 0.55 0.05 0.75
432 2 0.55 0.15 0.75
433 1 0.45 0.05 0.85
434 2 0.45 0.15 0.85
435 2 0.55 0.05 0.85
436 1 0.55 0.15 0.85
461 2 0.45 0.25 0.55
462 1 0.45 0.35 0.55
463 1 0.55 0.25 0.55
464 2 0.55 0.35 0.55
465 1 0.45 0.25 0.65
466 2 0.45 0.35 0.65
467 2 0.55 0.25 0.65
468 1 0.55 0.35 0.65
469 2 0.45 0.25 0.75
470 1 0.45 0.35 0.75
471 1 0.55 0.25 0.75
472 2 0.55 0.35 0.75
473 1 0.45 0.25 0.85
474 2 0.45 0.35 0.85
475 2 0.55 0.25 0.85
476 1 0.55 0.35 0.85
621 2 0.65 0.05 0.55
622 1 0.65 0.15 0.55
623 1 0.75 0.05 0.55
624 2 0.75 0.15 0.55
625 1 0.65 0.05 0.65
626 2 0.65 0.15 0.65
627 2 0.75 0.05 0.65
628 1 0.75 0.15 0.65
629 2 0.65 0.05 0.75
630 1 0.65 0.15 0.75
631 1 0.75 0.05 0.75
632 2 0.75 0.15 0.75
633 1 0.65 0.05 0.85
634 2 0.65 0.15 0.85
635 2 0.75 0.05 0.85
636 1 0.75 0.15 0.85
661 2 0.65 0.25 0.55
662 1 0.65 0.35 0.55
663 1 0.75 0.25 0.55
664 2 0.75 0.35 0.55
665 1 0.65 0.25 0.65
666 2 0.65 0.35 0.65
667 2 0.75 0.25 0.65
668 1 0.75 0.35 0.65
669 2 0.65 0.25 0.75
670 1 0.65 0.35 0.75
671 1 0.75 0.25 0.75
672 2 0.75 0.35 0.75
673 1 0.65 0.25 0.85
674 2 0.65 0.35 0.85
675 2 0.75 0.25 0.85
676 1 0.75 0.35 0.85
821 2 0.85 0.05 0.55
822 1 0.85 0.15 0.55
823 1 0.95 0.05 0.55
824 2 0.95 0.15 0.55
825 1 0.85 0.05 0.65
826 2 0.85 0.15 0.65
827 2 0.95 0.05 0.65
828 1 0.95 0.15 0.65
829 2 0.85 0.05 0.75
830 1 0.85 0.15 0.75
831 1 0.95 0.05 0.75
832 2 0.95 0.15 0.75
833 1 0.85 0.05 0.85
834 2 0.85 0.15 0.85
835 2 0.95 0.05 0.85
836 1 0.95 0.15 0.85
861 2 0.85 0.25 0.55
862 1 0.85 0.35 0.55
863 1 0.95 0.25 0.55
864 2 0.95 0.35 0.55
865 1 0.85 0.25 0.65
866 2 0.85 0.35 0.65
867 2 0.95 0.25 0.65
868 1 0.95 0.35 0.65
869 2 0.85 0.25 0.75
870 1 0.85 0.35 0.75
871 1 0.95 0.25 0.75
872 2 0.95 0.35 0.75
873 1 0.85 0.25 0.85
874 2 0.85 0.35 0.85
875 2 0.95 0.25 0.85
876 1 0.95 0.35 0.85
101 2 0.05 0.45 0.55
103 1 0.15 0.45 0.55
105 1 0.05 0.45 0.65
107 2 0.15 0.45 0.65
109 2 0.05 0.45 0.75
111 1 0.15 0.45 0.75
113 1 0.05 0.45 0.85
115 2 0.15 0.45 0.85
301 2 0.25 0.45 0.55
303 1 0.35 0.45 0.55
305 1 0.25 0.45 0.65
307 2 0.35 0.45 0.65
309 2 0.25 0.45 0.75
311 1 0.35 0.45 0.75
313 1 0.25 0.45 0.85
315 2 0.35 0.45 0.85
501 2 0.45 0.45 0.55
503 1 0.55 0.45 0.55
505 1 0.45 0.45 0.65
507 2 0.55 0.45 0.65
509 2 0.45 0.45 0.75
511 1 0.55 0.45 0.75
513 1 0.45 0.45 0.85
515 2 0.55 0.45 0.85
701 2 0.65 0.45 0.55
703 1 0.75 0.45 0.55
705 1 0.65 0.45 0.65
707 2 0.75 0.45 0.65
709 2 0.65 0.45 0.75
711 1 0.75 0.45 0.75
713 1 0.65 0.45 0.85
715 2 0.75 0.45 0.85
901 2 0.85 0.45 0.55
903 1 0.95 0.45 0.55
905 1 0.85 0.45 0.65
907 2 0.95 0.45 0.65
909 2 0.85 0.45 0.75
911 1 0.95 0.45 0.75
913 1 0.85 0.45 0.85
915 2 0.95 0.45 0.85
37 2 0.05 0.05 0.95
38 1 0.05 0.15 0.95
39 1 0.15 0.05 0.95
40 2 0.15 0.15 0.95
77 2 0.05 0.25 0.95
78 1 0.05 0.35 0.95
79 1 0.15 0.25 0.95
80 2 0.15 0.35 0.95
237 2 0.25 0.05 0.95
238 1 0.25 0.15 0.95
239 1 0.35 0.05 0.95
240 2 0.35 0.15 0.95
277 2 0.25 0.25 0.95
278 1 0.25 0.35 0.95
279 1 0.35 0.25 0.95
280 2 0.35 0.35 0.95
437 2 0.45 0.05 0.95
438 1 0.45 0.15 0.95
439 1 0.55 0.05 0.95
440 2 0.55 0.15 0.95
477 2 0.45 0.25 0.95
478 1 0.45 0.35 0.95
479 1 0.55 0.25 0.95
480 2 0.55 0.35 0.95
637 2 0.65 0.05 0.95
638 1 0.65 0.15 0.95
639 1 0.75 0.05 0.95
640 2 0.75 0.15 0.95
677 2 0.65 0.25 0.95
678 1 0.65 0.35 0.95
679 1 0.75 0.25 0.95
680 2 0.75 0.35 0.95
837 2 0.85 0.05 0.95
838 1 0.85 0.15 0.95
839 1 0.95 0.05 0.95
840 2 0.95 0.15 0.95
877 2 0.85 0.25 0.95
878 1 0.85 0.35 0.95
879 1 0.95 0.25 0.95
880 2 0.95 0.35 0.95
117 2 0.05 0.45 0.95
119 1 0.15 0.45 0.95
317 2 0.25 0.45 0.95
319 1 0.35 0.45 0.95
517 2 0.45 0.45 0.95
519 1 0.55 0.45 0.95
717 2 0.65 0.45 0.95
719 1 0.75 0.45 0.95
917 2 0.85 0.45 0.95
919 1 0.95 0.45 0.95
82 2 0.05 0.55 0.05
84 1 0.15 0.55 0.05
86 1 0.05 0.55 0.15
88 2 0.15 0.55 0.15
90 2 0.05 0.55 0.25
92 1 0.15 0.55 0.25
94 1 0.05 0.55 0.35
96 2 0.15 0.55 0.35
121 1 0.05 0.65 0.05
122 2 0.05 0.75 0.05
123 2 0.15 0.65 0.05
124 1 0.15 0.75 0.05
125 2 0.05 0.65 0.15
126 1 0.05 0.75 0.15
127 1 0.15 0.65 0.15
128 2 0.15 0.75 0.15
129 1 0.05 0.65 0.25
130 2 0.05 0.75 0.25
131 2 0.15 0.65 0.25
132 1 0.15 0.75 0.25
133 2 0.05 0.65 0.35
134 1 0.05 0.75 0.35
135 1 0.15 0.65 0.35
136 2 0.15 0.75 0.35
161 1 0.05 0.85 0.05
163 2 0.15 0.85 0.05
165 2 0.05 0.85 0.15
167 1 0.15 0.85 0.15
169 1 0.05 0.85 0.25
171 2 0.15 0.85 0.25
173 2 0.05 0.85 0.35
175 1 0.15 0.85 0.35
282 2 0.25 0.55 0.05
284 1 0.35 0.55 0.05
286 1 0.25 0.55 0.15
288 2 0.35 0.55 0.15
290 2 0.25 0.55 0.25
292 1 0.35 0.55 0.25
294 1 0.25 0.55 0.35
296 2 0.35 0.55 0.35
321 1 0.25 0.65 0.05
322 2 0.25 0.75 0.05
323 2 0.35 0.65 0.05
324 1 0.35 0.75 0.05
325 2 0.25 0.65 0.15
326 1 0.25 0.75 0.15
327 1 0.35 0.65 0.15
328 2 0.35 0.75 0.15
329 1 0.25 0.65 0.25
330 2 0.25 0.75 0.25
331 2 0.35 0.65 0.25
332 1 0.35 0.75 0.25
333 2 0.25 0.65 0.35
334 1 0.25 0.75 0.35
335 1 0.35 0.65 0.35
336 2 0.35 0.75 0.35
361 1 0.25 0.85 0.05
363 2 0.35 0.85 0.05
365 2 0.25 0.85 0.15
367 1 0.35 0.85 0.15
369 1 0.25 0.85 0.25
371 2 0.35 0.85 0.25
373 2 0.25 0.85 0.35
375 1 0.35 0.85 0.35
482 2 0.45 0.55 0.05
484 1 0.55 0.55 0.05
486 1 0.45 0.55 0.15
488 2 0.55 0.55 0.15
490 2 0.45 0.55 0.25
492 1 0.55 0.55 0.25
494 1 0.45 0.55 0.35
496 2 0.55 0.55 0.35
521 1 0.45 0.65 0.05
522 2 0.45 0.75 0.05
523 2 0.55 0.65 0.05
524 1 0.55 0.75 0.05
525 2 0.45 0.65 0.15
526 1 0.45 0.75 0.15
527 1 0.55 0.65 0.15
528 2 0.55 0.75 0.15
529 1 0.45 0.65 0.25
530 2 0.45 0.75 0.25
531 2 0.55 0.65 0.25
532 1 0.55 0.75 0.25
533 2 0.45 0.65 0.35
534 1 0.45 0.75 0.35
535 1 0.55 0.65 0.35
536 2 0.55 0.75 0.35
561 1 0.45 0.85 0.05
563 2 0.55 0.85 0.05
565 2 0.45 0.85 0.15
567 1 0.55 0.85 0.15
569 1 0.45 0.85 0.25
571 2 0.55 0.85 0.25
573 2 0.45 0.85 0.35
575 1 0.55 0.85 0.35
682 2 0.65 0.55 0.05
684 1 0.75 0.55 0.05
686 1 0.65 0.55 0.15
688 2 0.75 0.55 0.15
690 2 0.65 0.55 0.25
692 1 0.75 0.55 0.25
694 1 0.65 0.55 0.35
696 2 0.75 0.55 0.35
721 1 0.65 0.65 0.05
722 2 0.65 0.75 0.05
723 2 0.75 0.65 0.05
724 1 0.75 0.75 0.05
725 2 0.65 0.65 0.15
726 1 0.65 0.75 0.15
727 1 0.75 0.65 0.15
728 2 0.75 0.75 0.15
729 1 0.65 0.65 0.25
730 2 0.65 0.75 0.25
731 2 0.75 0.65 0.25
732 1 0.75 0.75 0.25
733 2 0.65 0.65 0.35
734 1 0.65 0.75 0.35
735 1 0.75 0.65 0.35
736 2 0.75 0.75 0.35
761 1 0.65 0.85 0.05
763 2 0.75 0.85 0.05
765 2 0.65 0.85 0.15
767 1 0.75 0.85 0.15
769 1 0.65 0.85 0.25
771 2 0.75 0.85 0.25
773 2 0.65 0.85 0.35
775 1 0.75 0.85 0.35
882 2 0.85 0.55 0.05
884 1 0.95 0.55 0.05
886 1 0.85 0.55 0.15
888 2 0.95 0.55 0.15
890 2 0.85 0.55 0.25
892 1 0.95 0.55 0.25
894 1 0.85 0.55 0.35
896 2 0.95 0.55 0.35
921 1 0.85 0.65 0.05
922 2 0.85 0.75 0.05
923 2 0.95 0.65 0.05
924 1 0.95 0.75 0.05
925 2 0.85 0.65 0.15
926 1 0.85 0.75 0.15
927 1 0.95 0.65 0.15
928 2 0.95 0.75 0.15
929 1 0.85 0.65 0.25
930 2 0.85 0.75 0.25
931 2 0.95 0.65 0.25
932 1 0.95 0.75 0.25
933 2 0.85 0.65 0.35
934 1 0.85 0.75 0.35
935 1 0.95 0.65 0.35
936 2 0.95 0.75 0.35
961 1 0.85 0.85 0.05
963 2 0.95 0.85 0.05
965 2 0.85 0.85 0.15
967 1 0.95 0.85 0.15
969 1 0.85 0.85 0.25
971 2 0.95 0.85 0.25
973 2 0.85 0.85 0.35
975 1 0.95 0.85 0.35
162 2 0.05 0.95 0.05
164 1 0.15 0.95 0.05
166 1 0.05 0.95 0.15
168 2 0.15 0.95 0.15
170 2 0.05 0.95 0.25
172 1 0.15 0.95 0.25
174 1 0.05 0.95 0.35
176 2 0.15 0.95 0.35
362 2 0.25 0.95 0.05
364 1 0.35 0.95 0.05
366 1 0.25 0.95 0.15
368 2 0.35 0.95 0.15
370 2 0.25 0.95 0.25
372 1 0.35 0.95 0.25
374 1 0.25 0.95 0.35
376 2 0.35 0.95 0.35
562 2 0.45 0.95 0.05
564 1 0.55 0.95 0.05
566 1 0.45 0.95 0.15
568 2 0.55 0.95 0.15
570 2 0.45 0.95 0.25
572 1 0.55 0.95 0.25
574 1 0.45 0.95 0.35
576 2 0.55 0.95 0.35
762 2 0.65 0.95 0.05
764 1 0.75 0.95 0.05
766 1 0.65 0.95 0.15
768 2 0.75 0.95 0.15
770 2 0.65 0.95 0.25
772 1 0.75 0.95 0.25
774 1 0.65 0.95 0.35
776 2 0.75 0.95 0.35
962 2 0.85 0.95 0.05
964 1 0.95 0.95 0.05
966 1 0.85 0.95 0.15
968 2 0.95 0.95 0.15
970 2 0.85 0.95 0.25
972 1 0.95 0.95 0.25
974 1 0.85 0.95 0.35
976 2 0.95 0.95 0.35
98 2 0.05 0.55 0.45
100 1 0.15 0.55 0.45
137 1 0.05 0.65 0.45
138 2 0.05 0.75 0.45
139 2 0.15 0.65 0.45
140 1 0.15 0.75 0.45
177 1 0.05 0.85 0.45
179 2 0.15 0.85 0.45
298 2 0.25 0.55 0.45
300 1 0.35 0.55 0.45
337 1 0.25 0.65 0.45
338 2 0.25 0.75 0.45
339 2 0.35 0.65 0.45
340 1 0.35 0.75 0.45
377 1 0.25 0.85 0.45
379 2 0.35 0.85 0.45
498 2 0.45 0.55 0.45
500 1 0.55 0.55 0.45
537 1 0.45 0.65 0.45
538 2 0.45 0.75 0.45
539 2 0.55 0.65 0.45
540 1 0.55 0.75 0.45
577 1 0.45 0.85 0.45
579 2 0.55 0.85 0.45
698 2 0.65 0.55 0.45
700 1 0.75 0.55 0.45
737 1 0.65 0.65 0.45
738 2 0.65 0.75 0.45
739 2 0.75 0.65 0.45
740 1 0.75 0.75 0.45
777 1 0.65 0.85 0.45
779 2 0.75 0.85 0.45
898 2 0.85 0.55 0.45
900 1 0.95 0.55 0.45
937 1 0.85 0.65 0.45
938 2 0.85 0.75 0.45
939 2 0.95 0.65 0.45
940 1 0.95 0.75 0.45
977 1 0.85 0.85 0.45
979 2 0.95 0.85 0.45
178 2 0.05 0.95 0.45
180 1 0.15 0.95 0.45
378 2 0.25 0.95 0.45
380 1 0.35 0.95 0.45
578 2 0.45 0.95 0.45
580 1 0.55 0.95 0.45
778 2 0.65 0.95 0.45
780 1 0.75 0.95 0.45
978 2 0.85 0.95 0.45
980 1 0.95 0.95 0.45
102 1 0.05 0.55 0.55
104 2 0.15 0.55 0.55
106 2 0.05 0.55 0.65
108 1 0.15 0.55 0.65
110 1 0.05 0.55 0.75
112 2 0.15 0.55 0.75
114 2 0.05 0.55 0.85
116 1 0.15 0.55 0.85
141 2 0.05 0.65 0.55
142 1 0.05 0.75 0.55
143 1 0.15 0.65 0.55
144 2 0.15 0.75 0.55
145 1 0.05 0.65 0.65
146 2 0.05 0.75 0.65
147 2 0.15 0.65 0.65
148 1 0.15 0.75 0.65
149 2 0.05 0.65 0.75
150 1 0.05 0.75 0.75
151 1 0.15 0.65 0.75
152 2 0.15 0.75 0.75
153 1 0.05 0.65 0.85
154 2 0.05 0.75 0.85
155 2 0.15 0.65 0.85
156 1 0.15 0.75 0.85
181 2 0.05 0.85 0.55
183 1 0.15 0.85 0.55
185 1 0.05 0.85 0.65
187 2 0.15 0.85 0.65
189 2 0.05 0.85 0.75
191 1 0.15 0.85 0.75
193 1 0.05 0.85 0.85
195 2 0.15 0.85 0.85
302 1 0.25 0.55 0.55
304 2 0.35 0.55 0.55
306 2 0.25 0.55 0.65
308 1 0.35 0.55 0.65
310 1 0.25 0.55 0.75
312 2 0.35 0.55 0.75
314 2 0.25 0.55 0.85
316 1 0.35 0.55 0.85
341 2 0.25 0.65 0.55
342 1 0.25 0.75 0.55
343 1 0.35 0.65 0.55
344 2 0.35 0.75 0.55
345 1 0.25 0.65 0.65
346 2 0.25 0.75 0.65
347 2 0.35 0.65 0.65
348 1 0.35 0.75 0.65
349 2 0.25 0.65 0.75
350 1 0.25 0.75 0.75
351 1 0.35 0.65 0.75
352 2 0.35 0.75 0.75
353 1 0.25 0.65 0.85
354 2 0.25 0.75 0.85
355 2 0.35 0.65 0.85
356 1 0.35 0.75 0.85
381 2 0.25 0.85 0.55
383 1 0.35 0.85 0.55
385 1 0.25 0.85 0.65
387 2 0.35 0.85 0.65
389 2 0.25 0.85 0.75
391 1 0.35 0.85 0.75
393 1 0.25 0.85 0.85
395 2 0.35 0.85 0.85
502 1 0.45 0.55 0.55
504 2 0.55 0.55 0.55
506 2 0.45 0.55 0.65
508 1 0.55 0.55 0.65
510 1 0.45 0.55 0.75
512 2 0.55 0.55 0.75
514 2 0.45 0.55 0.85
516 1 0.55 0.55 0.85
541 2 0.45 0.65 0.55
542 1 0.45 0.75 0.55
543 1 0.55 0.65 0.55
544 2 0.55 0.75 0.55
545 1 0.45 0.65 0.65
546 2 0.45 0.75 0.65
547 2 0.55 0.65 0.65
548 1 0.55 0.75 0.65
549 2 0.45 0.65 0.75
550 1 0.45 0.75 0.75
551 1 0.55 0.65 0.75
552 2 0.55 0.75 0.75
553 1 0.45 0.65 0.85
554 2 0.45 0.75 0.85
555 2 0.55 0.65 0.85
556 1 0.55 0.75 0.85
581 2 0.45 0.85 0.55
583 1 0.55 0.85 0.55
585 1 0.45 0.85 0.65
587 2 0.55 0.85 0.65
589 2 0.45 0.85 0.75
591 1 0.55 0.85 0.75
593 1 0.45 0.85 0.85
595 2 0.55 0.85 0.85
702 1 0.65 0.55 0.55
704 2 0.75 0.55 0.55
706 2 0.65 0.55 0.65
708 1 0.75 0.55 0.65
710 1 0.65 0.55 0.75
712 2 0.75 0.55 0.75
714 2 0.65 0.55 0.85
716 1 0.75 0.55 0.85
741 2 0.65 0.65 0.55
742 1 0.65 0.75 0.55
743 1 0.75 0.65 0.55
744 2 0.75 0.75 0.55
745 1 0.65 0.65 0.65
746 2 0.65 0.75 0.65
747 2 0.75 0.65 0.65
748 1 0.75 0.75 0.65
749 2 0.65 0.65 0.75
750 1 0.65 0.75 0.75
751 1 0.75 0.65 0.75
752 2 0.75 0.75 0.75
753 1 0.65 0.65 0.85
754 2 0.65 0.75 0.85
755 2 0.75 0.65 0.85
756 1 0.75 0.75 0.85
781 2 0.65 0.85 0.55
783 1 0.75 0.85 0.55
785 1 0.65 0.85 0.65
787 2 0.75 0.85 0.65
789 2 0.65 0.85 0.75
791 1 0.75 0.85 0.75
793 1 0.65 0.85 0.85
795 2 0.75 0.85 0.85
902 1 0.85 0.55 0.55
904 2 0.95 0.55 0.55
906 2 0.85 0.55 0.65
908 1 0.95 0.55 0.65
910 1 0.85 0.55 0.75
912 2 0.95 0.55 0.75
914 2 0.85 0.55 0.85
916 1 0.95 0.55 0.85
941 2 0.85 0.65 0.55
942 1 0.85 0.75 0.55
943 1 0.95 0.65 0.55
944 2 0.95 0.75 0.55
945 1 0.85 0.65 0.65
946 2 0.85 0.75 0.65
947 2 0.95 0.65 0.65
948 1 0.95 0.75 0.65
949 2 0.85 0.65 0.75
950 1 0.85 0.75 0.75
951 1 0.95 0.65 0.75
952 2 0.95 0.75 0.75
953 1 0.85 0.65 0.85
954 2 0.85 0.75 0.85
955 2 0.95 0.65 0.85
956 1 0.95 0.75 0.85
981 2 0.85 0.85 0.55
983 1 0.95 0.85 0.55
985 1 0.85 0.85 0.65
987 2 0.95 0.85 0.65
989 2 0.85 0.85 0.75
991 1 0.95 0.85 0.75
993 1 0.85 0.85 0.85
995 2 0.95 0.85 0.85
182 1 0.05 0.95 0.55
184 2 0.15 0.95 0.55
186 2 0.05 0.95 0.65
188 1 0.15 0.95 0.65
190 1 0.05 0.95 0.75
192 2 0.15 0.95 0.75
194 2 0.05 0.95 0.85
196 1 0.15 0.95 0.85
382 1 0.25 0.95 0.55
384 2 0.35 0.95 0.55
386 2 0.25 0.95 0.65
388 1 0.35 0.95 0.65
390 1 0.25 0.95 0.75
392 2 0.35 0.95 0.75
394 2 0.25 0.95 0.85
396 1 0.35 0.95 0.85
582 1 0.45 0.95 0.55
584 2 0.55 0.95 0.55
586 2 0.45 0.95 0.65
588 1 0.55 0.95 0.65
590 1 0.45 0.95 0.75
592 2 0.55 0.95 0.75
594 2 0.45 0.95 0.85
596 1 0.55 0.95 0.85
782 1 0.65 0.95 0.55
784 2 0.75 0.95 0.55
786 2 0.65 0.95 0.65
788 1 0.75 0.95 0.65
790 1 0.65 0.95 0.75
792 2 0.75 0.95 0.75
794 2 0.65 0.95 0.85
796 1 0.75 0.95 0.85
982 1 0.85 0.95 0.55
984 2 0.95 0.95 0.55
986 2 0.85 0.95 0.65
988 1 0.95 0.95 0.65
990 1 0.85 0.95 0.75
992 2 0.95 0.95 0.75
994 2 0.85 0.95 0.85
996 1 0.95 0.95 0.85
118 1 0.05 0.55 0.95
120 2 0.15 0.55 0.95
157 2 0.05 0.65 0.95
158 1 0.05 0.75 0.95
159 1 0.15 0.65 0.95
160 2 0.15 0.75 0.95
197 2 0.05 0.85 0.95
199 1 0.15 0.85 0.95
318 1 0.25 0.55 0.95
320 2 0.35 0.55 0.95
357 2 0.25 0.65 0.95
358 1 0.25 0.75 0.95
359 1 0.35 0.65 0.95
360 2 0.35 0.75 0.95
397 2 0.25 0.85 0.95
399 1 0.35 0.85 0.95
518 1 0.45 0.55 0.95
520 2 0.55 0.55 0.95
557 2 0.45 0.65 0.95
558 1 0.45 0.75 0.95
559 1 0.55 0.65 0.95
560 2 0.55 0.75 0.95
597 2 0.45 0.85 0.95
599 1 0.55 0.85 0.95
718 1 0.65 0.55 0.95
720 2 0.75 0.55 0.95
757 2 0.65 0.65 0.95
758 1 0.65 0.75 0.95
759 1 0.75 0.65 0.95
760 2 0.75 0.75 0.95
797 2 0.65 0.85 0.95
799 1 0.75 0.85 0.95
918 1 0.85 0.55 0.95
920 2 0.95 0.55 0.95
957 2 0.85 0.65 0.95
958 1 0.85 0.75 0.95
959 1 0.95 0.65 0.95
960 2 0.95 0.75 0.95
997 2 0.85 0.85 0.95
999 1 0.95 0.85 0.95
198 1 0.05 0.95 0.95
200 2 0.15 0.95 0.95
398 1 0.25 0.95 0.95
400 2 0.35 0.95 0.95
598 1 0.45 0.95 0.95
600 2 0.55 0.95 0.95
798 1 0.65 0.95 0.95
800 2 0.75 0.95 0.95
998 1 0.85 0.95 0.95
1000 2 0.95 0.95 0.95
ITEM: TIMESTEP
1000
ITEM: NUMBER OF ATOMS
1000
ITEM: BOX BOUNDS pp pp pp
-1.3968572938615880e+01 1.3968572938615880e+01
-1.3975520530051893e+01 1.3975520530051893e+01
-1.3950077096738910e+01 1.3950077096738910e+01
ITEM: ATOMS id type xs ys zs
1 1 0.0459069 0.046282 0.0536762
2 2 0.0477405 0.148386 0.0491559
3 2 0.148354 0.0512976 0.0435874
4 1 0.143925 0.153757 0.0418729
5 2 0.0469321 0.0490933 0.150742
6 1 0.0445692 0.149876 0.146093
7 1 0.150034 0.0537489 0.145135
8 2 0.146259 0.153097 0.145926
9 1 0.047255 0.0447687 0.250284
10 2 0.0465517 0.145973 0.249243
11 2 0.150249 0.0471739 0.245815
12 1 0.143701 0.149757 0.250826
13 2 0.0484317 0.0478249 0.350215
14 1 0.0503954 0.145933 0.345941
15 1 0.153415 0.0511896 0.345047
16 2 0.147897 0.143389 0.348852
41 1 0.0503313 0.249479 0.0554512
42 2 0.0523891 0.346371 0.0516836
43 2 0.150331 0.254525 0.052247
44 1 0.153432 0.349628 0.0526046
45 2 0.0493804 0.254759 0.152029
46 1 0.0488887 0.352047 0.151256
47 1 0.146034 0.251108 0.148277
48 2 0.145759 0.350275 0.15075
49 1 0.0507058 0.247321 0.250689
50 2 0.0489933 0.348265 0.253395
51 2 0.152348 0.250447 0.253682
52 1 0.150915 0.349354 0.25304
53 2 0.0526183 0.247759 0.349737
54 1 0.0500609 0.348187 0.35366
55 1 0.150514 0.243677 0.353803
56 2 0.145277 0.348487 0.345933
201 1 0.244866 0.050487 0.0490239
202 2 0.252595 0.154748 0.0496985
203 2 0.348455 0.0518715 0.0483757
204 1 0.346655 0.152186 0.0528751
205 2 0.242389 0.0526586 0.153184
206 1 0.248186 0.152848 0.152361
207 1 0.355274 0.0525482 0.152379
208 2 0.350006 0.146718 0.148101
209 1 0.249464 0.0499888 0.249002
210 2 0.245616 0.148627 0.249309
211 2 0.35192 0.0461687 0.250317
212 1 0.347521 0.147266 0.251878
213 2 0.25115 0.049196 0.349187
214 1 0.252245 0.147149 0.349508
215 1 0.350486 0.0484226 0.352462
216 2 0.350833 0.150194 0.347123
241 1 0.253464 0.246465 0.0517886
242 2 0.251947 0.351223 0.0504761
243 2 0.350412 0.248349 0.0491122
244 1 0.352606 0.348469 0.0520714
245 2 0.256989 0.245417 0.150763
246 1 0.24976 0.35134 0.160064
247 1 0.3503 0.244019 0.152971
248 2 0.352181 0.354369 0.15508
249 1 0.248568 0.247254 0.258911
250 2 0.252578 0.349526 0.255246
251 2 0.347597 0.246169 0.252139
252 1 0.357331 0.349261 0.249881
253 2 0.251667 0.248745 0.353793
254 1 0.248364 0.345183 0.355915
255 1 0.351395 0.250297 0.346477
256 2 0.348782 0.347651 0.358222
401 1 0.453338 0.047615 0.0525955
402 2 0.452432 0.148943 0.0509077
403 2 0.5532 0.0478515 0.0492436
404 1 0.549438 0.152044 0.0512674
405 2 0.453945 0.0428364 0.149523
406 1 0.452979 0.149716 0.143739
407 1 0.551689 0.0438649 0.149718
408 2 0.552674 0.14745 0.14939
409 1 0.458369 0.0441083 0.252487
410 2 0.454683 0.145444 0.252728
411 2 0.55584 0.0421485 0.252167
412 1 0.553368 0.142963 0.25078
413 2 0.447139 0.0441713 0.356634
414 1 0.445516 0.147082 0.351226
415 1 0.553467 0.0413125 0.350632
416 2 0.550898 0.144505 0.346597
441 1 0.45102 0.255374 0.049564
442 2 0.45014 0.351685 0.0435886
443 2 0.549949 0.249114 0.0514541
444 1 0.557516 0.353895 0.0420919
445 2 0.450209 0.245882 0.148709
446 1 0.451181 0.345221 0.146998
447 1 0.553475 0.252544 0.15162
448 2 0.554335 0.34526 0.149331
449 1 0.452329 0.242795 0.245169
450 2 0.452838 0.345322 0.245746
451 2 0.550564 0.247134 0.247936
452 1 0.5488 0.347578 0.258261
453 2 0.452583 0.245825 0.351895
454 1 0.448178 0.3487 0.352618
455 1 0.548749 0.248172 0.342659
456 2 0.555188 0.346812 0.351647
601 1 0.650315 0.0464205 0.0537705
602 2 0.646592 0.150677 0.0478808
603 2 0.742159 0.0519103 0.0567563
604 1 0.744457 0.14655 0.0550152
605 2 0.647183 0.0509657 0.15263
606 1 0.650041 0.148453 0.151859
607 1 0.745596 0.0517765 0.156771
608 2 0.749965 0.151871 0.155254
609 1 0.648586 0.0465498 0.248287
610 2 0.65157 0.150754 0.252538
611 2 0.758804 0.055139 0.252329
612 1 0.755422 0.158778 0.25569
613 2 0.650455 0.0455707 0.349574
614 1 0.647795 0.146419 0.349637
615 1 0.756865 0.057052 0.357434
616 2 0.750436 0.15672 0.351691
641 1 0.652301 0.249692 0.0473278
642 2 0.652634 0.354146 0.0492178
643 2 0.748202 0.253904 0.0431806
644 1 0.751839 0.350338 0.0467722
645 2 0.654548 0.24746 0.145639
646 1 0.650622 0.346569 0.151857
647 1 0.752516 0.253433 0.155625
648 2 0.75252 0.350388 0.150774
649 1 0.645373 0.253856 0.246091
650 2 0.644595 0.346397 0.250591
651 2 0.758111 0.254129 0.24949
652 1 0.746604 0.350571 0.248635
653 2 0.648072 0.247954 0.347839
654 1 0.64745 0.35357 0.351067
655 1 0.747398 0.251115 0.34475
656 2 0.748137 0.35243 0.346588
801 1 0.846588 0.0470185 0.0521739
802 2 0.845893 0.146564 0.0497132
803 2 0.952114 0.0508589 0.0476438
804 1 0.949188 0.151524 0.048868
805 2 0.848095 0.0578784 0.149815
806 1 0.845625 0.156359 0.155443
807 1 0.94653 0.0541603 0.149345
808 2 0.947485 0.150151 0.148337
809 1 0.854164 0.061255 0.252462
810 2 0.855702 0.15824 0.254082
811 2 0.950285 0.0539853 0.247097
812 1 0.95114 0.156903 0.246768
813 2 0.853087 0.0538734 0.357419
814 1 0.856215 0.153928 0.35447
815 1 0.946455 0.0463492 0.351928
816 2 0.952846 0.155095 0.349303
841 1 0.847498 0.250216 0.0489194
842 2 0.846785 0.348298 0.044982
843 2 0.945316 0.247265 0.0505187
844 1 0.953389 0.351289 0.0415237
845 2 0.848248 0.258431 0.146868
846 1 0.853986 0.35369 0.151924
847 1 0.950292 0.255968 0.14116
848 2 0.953462 0.352214 0.149175
849 1 0.853906 0.253964 0.253188
850 2 0.84933 0.354968 0.253275
851 2 0.947252 0.248961 0.248138
852 1 0.95187 0.348651 0.250561
853 2 0.852246 0.257096 0.354848
854 1 0.85134 0.348415 0.35184
855 1 0.952532 0.254736 0.341253
856 2 0.950808 0.348252 0.344044
81 1 0.0528453 0.451112 0.0491956
83 2 0.152054 0.452889 0.0550117
85 2 0.0493838 0.454234 0.148648
87 1 0.150984 0.450388 0.153416
89 1 0.0488506 0.446472 0.249363
91 2 0.149795 0.448107 0.251819
93 2 0.0487527 0.452996 0.349115
95 1 0.141189 0.45006 0.345424
281 1 0.259649 0.448512 0.0533711
283 2 0.35626 0.453576 0.0542553
285 2 0.251915 0.449452 0.153902
287 1 0.355787 0.448212 0.152423
289 1 0.255088 0.447421 0.254092
291 2 0.349069 0.450985 0.256954
293 2 0.25069 0.456365 0.34983
295 1 0.346494 0.443532 0.352759
481 1 0.455304 0.44773 0.0517876
483 2 0.549936 0.4518 0.0501395
485 2 0.451119 0.450927 0.159463
487 1 0.55207 0.449497 0.14933
489 1 0.455343 0.452552 0.253793
491 2 0.5524 0.447448 0.260059
493 2 0.452881 0.446822 0.350274
495 1 0.548962 0.448791 0.354813
681 1 0.653115 0.453914 0.0504171
683 2 0.747704 0.456583 0.0447676
685 2 0.655883 0.443008 0.156756
687 1 0.749827 0.451906 0.148582
689 1 0.65013 0.447789 0.252807
691 2 0.747266 0.447838 0.257607
693 2 0.648262 0.448942 0.356953
695 1 0.750809 0.454734 0.351961
881 1 0.853636 0.45357 0.046061
883 2 0.951499 0.450232 0.0480073
885 2 0.846112 0.451745 0.147305
887 1 0.950455 0.452839 0.147686
889 1 0.849455 0.450237 0.244725
891 2 0.951838 0.449379 0.245017
893 2 0.85314 0.455791 0.350197
895 1 0.952932 0.456407 0.346083
17 1 0.0459189 0.0519458 0.445842
18 2 0.0452679 0.150109 0.44659
19 2 0.147785 0.0510044 0.45053
20 1 0.150389 0.151612 0.448217
57 1 0.0456085 0.250628 0.449708
58 2 0.0459113 0.349506 0.449559
59 2 0.145245 0.249206 0.450399
60 1 0.148958 0.353312 0.453795
217 1 0.243223 0.0466069 0.453124
218 2 0.249816 0.146823 0.450696
219 2 0.352452 0.0447872 0.44994
220 1 0.346798 0.151306 0.454564
257 1 0.246313 0.253024 0.453145
258 2 0.24304 0.350037 0.451482
259 2 0.349354 0.251961 0.450304
260 1 0.348985 0.34847 0.448215
417 1 0.451597 0.0441631 0.450777
418 2 0.446099 0.151286 0.452609
419 2 0.553227 0.0524608 0.447255
420 1 0.550658 0.147667 0.44194
457 1 0.456198 0.249994 0.449501
458 2 0.452716 0.349074 0.452978
459 2 0.549499 0.242916 0.440081
460 1 0.557219 0.341681 0.447741
617 1 0.646888 0.0529271 0.455791
618 2 0.645648 0.149353 0.447444
619 2 0.747772 0.0540033 0.454526
620 1 0.747768 0.153205 0.450748
657 1 0.651796 0.250742 0.446252
658 2 0.652065 0.348468 0.451397
659 2 0.746727 0.253745 0.449035
660 1 0.74663 0.352159 0.448032
817 1 0.852942 0.0496766 0.453182
818 2 0.849175 0.150632 0.450555
819 2 0.946613 0.052557 0.447846
820 1 0.952679 0.154649 0.449832
857 1 0.84377 0.251469 0.451384
858 2 0.843951 0.354924 0.447592
859 2 0.950503 0.257129 0.44825
860 1 0.946043 0.353518 0.44809
97 1 0.0455617 0.44834 0.453154
99 2 0.147086 0.45065 0.447991
297 1 0.246616 0.45131 0.443174
299 2 0.346389 0.449626 0.443817
497 1 0.450535 0.451499 0.45053
499 2 0.551434 0.448746 0.451113
697 1 0.652597 0.450491 0.454901
699 2 0.741741 0.451713 0.448578
897 1 0.850093 0.449209 0.447037
899 2 0.952257 0.447069 0.446743
21 2 0.0412801 0.0516426 0.54583
22 1 0.0470466 0.149615 0.546005
23 1 0.14433 0.0441824 0.550303
24 2 0.145488 0.15215 0.543878
25 1 0.051382 0.0523282 0.648491
26 2 0.0534519 0.148144 0.654247
27 2 0.145465 0.0508596 0.649083
28 1 0.149997 0.155375 0.64532
29 2 0.0490075 0.0445385 0.743709
30 1 0.0478053 0.141952 0.750942
31 1 0.146843 0.0436407 0.74631
32 2 0.149377 0.151818 0.74788